+ 0.1 /NodeList/0/DeviceList/0/$ns3::PointToPointNetDevice/TxQueue/Enqueue ns3::PppHeader (Point-to-Point Protocol: IP (0x0021)) ns3::Ipv4Header (tos 0x0 DSCP Default ECN Not-ECT ttl 64 id 0 protocol 17 offset (bytes) 0 flags [none] length: 1052 10.15.101.1 > 10.15.104.4) ns3::UdpHeader (length: 1032 49153 > 9) Payload (size=1024)
- 0.1 /NodeList/0/DeviceList/0/$ns3::PointToPointNetDevice/TxQueue/Dequeue ns3::PppHeader (Point-to-Point Protocol: IP (0x0021)) ns3::Ipv4Header (tos 0x0 DSCP Default ECN Not-ECT ttl 64 id 0 protocol 17 offset (bytes) 0 flags [none] length: 1052 10.15.101.1 > 10.15.104.4) ns3::UdpHeader (length: 1032 49153 > 9) Payload (size=1024)
+ 0.2 /NodeList/0/DeviceList/0/$ns3::PointToPointNetDevice/TxQueue/Enqueue ns3::PppHeader (Point-to-Point Protocol: IP (0x0021)) ns3::Ipv4Header (tos 0x0 DSCP Default ECN Not-ECT ttl 64 id 1 protocol 17 offset (bytes) 0 flags [none] length: 1052 10.15.101.1 > 10.15.104.4) ns3::UdpHeader (length: 1032 49153 > 9) Payload (size=1024)
+ 0.3 /NodeList/0/DeviceList/0/$ns3::PointToPointNetDevice/TxQueue/Enqueue ns3::PppHeader (Point-to-Point Protocol: IP (0x0021)) ns3::Ipv4Header (tos 0x0 DSCP Default ECN Not-ECT ttl 64 id 2 protocol 17 offset (bytes) 0 flags [none] length: 1052 10.15.101.1 > 10.15.104.4) ns3::UdpHeader (length: 1032 49153 > 9) Payload (size=1024)
+ 0.4 /NodeList/0/DeviceList/0/$ns3::PointToPointNetDevice/TxQueue/Enqueue ns3::PppHeader (Point-to-Point Protocol: IP (0x0021)) ns3::Ipv4Header (tos 0x0 DSCP Default ECN Not-ECT ttl 64 id 3 protocol 17 offset (bytes) 0 flags [none] length: 1052 10.15.101.1 > 10.15.104.4) ns3::UdpHeader (length: 1032 49153 > 9) Payload (size=1024)
+ 0.5 /NodeList/0/DeviceList/0/$ns3::PointToPointNetDevice/TxQueue/Enqueue ns3::PppHeader (Point-to-Point Protocol: IP (0x0021)) ns3::Ipv4Header (tos 0x0 DSCP Default ECN Not-ECT ttl 64 id 4 protocol 17 offset (bytes) 0 flags [none] length: 1052 10.15.101.1 > 10.15.104.4) ns3::UdpHeader (length: 1032 49153 > 9) Payload (size=1024)
+ 0.6 /NodeList/0/DeviceList/0/$ns3::PointToPointNetDevice/TxQueue/Enqueue ns3::PppHeader (Point-to-Point Protocol: IP (0x0021)) ns3::Ipv4Header (tos 0x0 DSCP Default ECN Not-ECT ttl 64 id 5 protocol 17 offset (bytes) 0 flags [none] length: 1052 10.15.101.1 > 10.15.104.4) ns3::UdpHeader (length: 1032 49153 > 9) Payload (size=1024)
+ 0.7 /NodeList/0/DeviceList/0/$ns3::PointToPointNetDevice/TxQueue/Enqueue ns3::PppHeader (Point-to-Point Protocol: IP (0x0021)) ns3::Ipv4Header (tos 0x0 DSCP Default ECN Not-ECT ttl 64 id 6 protocol 17 offset (bytes) 0 flags [none] length: 1052 10.15.101.1 > 10.15.104.4) ns3::UdpHeader (length: 1032 49153 > 9) Payload (size=1024)
+ 0.8 /NodeList/0/DeviceList/0/$ns3::PointToPointNetDevice/TxQueue/Enqueue ns3::PppHeader (Point-to-Point Protocol: IP (0x0021)) ns3::Ipv4Header (tos 0x0 DSCP Default ECN Not-ECT ttl 64 id 7 protocol 17 offset (bytes) 0 flags [none] length: 1052 10.15.101.1 > 10.15.104.4) ns3::UdpHeader (length: 1032 49153 > 9) Payload (size=1024)
+ 0.9 /NodeList/0/DeviceList/0/$ns3::PointToPointNetDevice/TxQueue/Enqueue ns3::PppHeader (Point-to-Point Protocol: IP (0x0021)) ns3::Ipv4Header (tos 0x0 DSCP Default ECN Not-ECT ttl 64 id 8 protocol 17 offset (bytes) 0 flags [none] length: 1052 10.15.101.1 > 10.15.104.4) ns3::UdpHeader (length: 1032 49153 > 9) Payload (size=1024)
+ 1 /NodeList/0/DeviceList/0/$ns3::PointToPointNetDevice/TxQueue/Enqueue ns3::PppHeader (Point-to-Point Protocol: IP (0x0021)) ns3::Ipv4Header (tos 0x0 DSCP Default ECN Not-ECT ttl 64 id 9 protocol 17 offset (bytes) 0 flags [none] length: 1052 10.15.101.1 > 10.15.104.4) ns3::UdpHeader (length: 1032 49153 > 9) Payload (size=1024)
+ 1.1 /NodeList/0/DeviceList/0/$ns3::PointToPointNetDevice/TxQueue/Enqueue ns3::PppHeader (Point-to-Point Protocol: IP (0x0021)) ns3::Ipv4Header (tos 0x0 DSCP Default ECN Not-ECT ttl 64 id 10 protocol 17 offset (bytes) 0 flags [none] length: 1052 10.15.101.1 > 10.15.104.4) ns3::UdpHeader (length: 1032 49153 > 9) Payload (size=1024)
+ 1.2 /NodeList/0/DeviceList/0/$ns3::PointToPointNetDevice/TxQueue/Enqueue ns3::PppHeader (Point-to-Point Protocol: IP (0x0021)) ns3::Ipv4Header (tos 0x0 DSCP Default ECN Not-ECT ttl 64 id 11 protocol 17 offset (bytes) 0 flags [none] length: 1052 10.15.101.1 > 10.15.104.4) ns3::UdpHeader (length: 1032 49153 > 9) Payload (size=1024)
+ 1.3 /NodeList/0/DeviceList/0/$ns3::PointToPointNetDevice/TxQueue/Enqueue ns3::PppHeader (Point-to-Point Protocol: IP (0x0021)) ns3::Ipv4Header (tos 0x0 DSCP Default ECN Not-ECT ttl 64 id 12 protocol 17 offset (bytes) 0 flags [none] length: 1052 10.15.101.1 > 10.15.104.4) ns3::UdpHeader (length: 1032 49153 > 9) Payload (size=1024)
+ 1.4 /NodeList/0/DeviceList/0/$ns3::PointToPointNetDevice/TxQueue/Enqueue ns3::PppHeader (Point-to-Point Protocol: IP (0x0021)) ns3::Ipv4Header (tos 0x0 DSCP Default ECN Not-ECT ttl 64 id 13 protocol 17 offset (bytes) 0 flags [none] length: 1052 10.15.101.1 > 10.15.104.4) ns3::UdpHeader (length: 1032 49153 > 9) Payload (size=1024)
+ 1.5 /NodeList/0/DeviceList/0/$ns3::PointToPointNetDevice/TxQueue/Enqueue ns3::PppHeader (Point-to-Point Protocol: IP (0x0021)) ns3::Ipv4Header (tos 0x0 DSCP Default ECN Not-ECT ttl 64 id 14 protocol 17 offset (bytes) 0 flags [none] length: 1052 10.15.101.1 > 10.15.104.4) ns3::UdpHeader (length: 1032 49153 > 9) Payload (size=1024)
+ 1.6 /NodeList/0/DeviceList/0/$ns3::PointToPointNetDevice/TxQueue/Enqueue ns3::PppHeader (Point-to-Point Protocol: IP (0x0021)) ns3::Ipv4Header (tos 0x0 DSCP Default ECN Not-ECT ttl 64 id 15 protocol 17 offset (bytes) 0 flags [none] length: 1052 10.15.101.1 > 10.15.104.4) ns3::UdpHeader (length: 1032 49153 > 9) Payload (size=1024)
+ 1.7 /NodeList/0/DeviceList/0/$ns3::PointToPointNetDevice/TxQueue/Enqueue ns3::PppHeader (Point-to-Point Protocol: IP (0x0021)) ns3::Ipv4Header (tos 0x0 DSCP Default ECN Not-ECT ttl 64 id 16 protocol 17 offset (bytes) 0 flags [none] length: 1052 10.15.101.1 > 10.15.104.4) ns3::UdpHeader (length: 1032 49153 > 9) Payload (size=1024)
+ 1.8 /NodeList/0/DeviceList/0/$ns3::PointToPointNetDevice/TxQueue/Enqueue ns3::PppHeader (Point-to-Point Protocol: IP (0x0021)) ns3::Ipv4Header (tos 0x0 DSCP Default ECN Not-ECT ttl 64 id 17 protocol 17 offset (bytes) 0 flags [none] length: 1052 10.15.101.1 > 10.15.104.4) ns3::UdpHeader (length: 1032 49153 > 9) Payload (size=1024)
+ 1.9 /NodeList/0/DeviceList/0/$ns3::PointToPointNetDevice/TxQueue/Enqueue ns3::PppHeader (Point-to-Point Protocol: IP (0x0021)) ns3::Ipv4Header (tos 0x0 DSCP Default ECN Not-ECT ttl 64 id 18 protocol 17 offset (bytes) 0 flags [none] length: 1052 10.15.101.1 > 10.15.104.4) ns3::UdpHeader (length: 1032 49153 > 9) Payload (size=1024)
+ 2 /NodeList/0/DeviceList/0/$ns3::PointToPointNetDevice/TxQueue/Enqueue ns3::PppHeader (Point-to-Point Protocol: IP (0x0021)) ns3::Ipv4Header (tos 0x0 DSCP Default ECN Not-ECT ttl 64 id 19 protocol 17 offset (bytes) 0 flags [none] length: 1052 10.15.101.1 > 10.15.104.4) ns3::UdpHeader (length: 1032 49153 > 9) Payload (size=1024)
+ 2.1 /NodeList/0/DeviceList/0/$ns3::PointToPointNetDevice/TxQueue/Enqueue ns3::PppHeader (Point-to-Point Protocol: IP (0x0021)) ns3::Ipv4Header (tos 0x0 DSCP Default ECN Not-ECT ttl 64 id 20 protocol 17 offset (bytes) 0 flags [none] length: 1052 10.15.101.1 > 10.15.104.4) ns3::UdpHeader (length: 1032 49153 > 9) Payload (size=1024)
+ 2.2 /NodeList/0/DeviceList/0/$ns3::PointToPointNetDevice/TxQueue/Enqueue ns3::PppHeader (Point-to-Point Protocol: IP (0x0021)) ns3::Ipv4Header (tos 0x0 DSCP Default ECN Not-ECT ttl 64 id 21 protocol 17 offset (bytes) 0 flags [none] length: 1052 10.15.101.1 > 10.15.104.4) ns3::UdpHeader (length: 1032 49153 > 9) Payload (size=1024)
+ 2.3 /NodeList/0/DeviceList/0/$ns3::PointToPointNetDevice/TxQueue/Enqueue ns3::PppHeader (Point-to-Point Protocol: IP (0x0021)) ns3::Ipv4Header (tos 0x0 DSCP Default ECN Not-ECT ttl 64 id 22 protocol 17 offset (bytes) 0 flags [none] length: 1052 10.15.101.1 > 10.15.104.4) ns3::UdpHeader (length: 1032 49153 > 9) Payload (size=1024)
+ 2.4 /NodeList/0/DeviceList/0/$ns3::PointToPointNetDevice/TxQueue/Enqueue ns3::PppHeader (Point-to-Point Protocol: IP (0x0021)) ns3::Ipv4Header (tos 0x0 DSCP Default ECN Not-ECT ttl 64 id 23 protocol 17 offset (bytes) 0 flags [none] length: 1052 10.15.101.1 > 10.15.104.4) ns3::UdpHeader (length: 1032 49153 > 9) Payload (size=1024)
+ 2.5 /NodeList/0/DeviceList/0/$ns3::PointToPointNetDevice/TxQueue/Enqueue ns3::PppHeader (Point-to-Point Protocol: IP (0x0021)) ns3::Ipv4Header (tos 0x0 DSCP Default ECN Not-ECT ttl 64 id 24 protocol 17 offset (bytes) 0 flags [none] length: 1052 10.15.101.1 > 10.15.104.4) ns3::UdpHeader (length: 1032 49153 > 9) Payload (size=1024)
+ 2.6 /NodeList/0/DeviceList/0/$ns3::PointToPointNetDevice/TxQueue/Enqueue ns3::PppHeader (Point-to-Point Protocol: IP (0x0021)) ns3::Ipv4Header (tos 0x0 DSCP Default ECN Not-ECT ttl 64 id 25 protocol 17 offset (bytes) 0 flags [none] length: 1052 10.15.101.1 > 10.15.104.4) ns3::UdpHeader (length: 1032 49153 > 9) Payload (size=1024)
+ 2.7 /NodeList/0/DeviceList/0/$ns3::PointToPointNetDevice/TxQueue/Enqueue ns3::PppHeader (Point-to-Point Protocol: IP (0x0021)) ns3::Ipv4Header (tos 0x0 DSCP Default ECN Not-ECT ttl 64 id 26 protocol 17 offset (bytes) 0 flags [none] length: 1052 10.15.101.1 > 10.15.104.4) ns3::UdpHeader (length: 1032 49153 > 9) Payload (size=1024)
+ 2.8 /NodeList/0/DeviceList/0/$ns3::PointToPointNetDevice/TxQueue/Enqueue ns3::PppHeader (Point-to-Point Protocol: IP (0x0021)) ns3::Ipv4Header (tos 0x0 DSCP Default ECN Not-ECT ttl 64 id 27 protocol 17 offset (bytes) 0 flags [none] length: 1052 10.15.101.1 > 10.15.104.4) ns3::UdpHeader (length: 1032 49153 > 9) Payload (size=1024)
+ 2.9 /NodeList/0/DeviceList/0/$ns3::PointToPointNetDevice/TxQueue/Enqueue ns3::PppHeader (Point-to-Point Protocol: IP (0x0021)) ns3::Ipv4Header (tos 0x0 DSCP Default ECN Not-ECT ttl 64 id 28 protocol 17 offset (bytes) 0 flags [none] length: 1052 10.15.101.1 > 10.15.104.4) ns3::UdpHeader (length: 1032 49153 > 9) Payload (size=1024)
+ 3 /NodeList/0/DeviceList/0/$ns3::PointToPointNetDevice/TxQueue/Enqueue ns3::PppHeader (Point-to-Point Protocol: IP (0x0021)) ns3::Ipv4Header (tos 0x0 DSCP Default ECN Not-ECT ttl 64 id 29 protocol 17 offset (bytes) 0 flags [none] length: 1052 10.15.101.1 > 10.15.104.4) ns3::UdpHeader (length: 1032 49153 > 9) Payload (size=1024)
+ 3.1 /NodeList/0/DeviceList/0/$ns3::PointToPointNetDevice/TxQueue/Enqueue ns3::PppHeader (Point-to-Point Protocol: IP (0x0021)) ns3::Ipv4Header (tos 0x0 DSCP Default ECN Not-ECT ttl 64 id 30 protocol 17 offset (bytes) 0 flags [none] length: 1052 10.15.101.1 > 10.15.104.4) ns3::UdpHeader (length: 1032 49153 > 9) Payload (size=1024)
+ 3.2 /NodeList/0/DeviceList/0/$ns3::PointToPointNetDevice/TxQueue/Enqueue ns3::PppHeader (Point-to-Point Protocol: IP (0x0021)) ns3::Ipv4Header (tos 0x0 DSCP Default ECN Not-ECT ttl 64 id 31 protocol 17 offset (bytes) 0 flags [none] length: 1052 10.15.101.1 > 10.15.104.4) ns3::UdpHeader (length: 1032 49153 > 9) Payload (size=1024)
+ 3.3 /NodeList/0/DeviceList/0/$ns3::PointToPointNetDevice/TxQueue/Enqueue ns3::PppHeader (Point-to-Point Protocol: IP (0x0021)) ns3::Ipv4Header (tos 0x0 DSCP Default ECN Not-ECT ttl 64 id 32 protocol 17 offset (bytes) 0 flags [none] length: 1052 10.15.101.1 > 10.15.104.4) ns3::UdpHeader (length: 1032 49153 > 9) Payload (size=1024)
+ 3.4 /NodeList/0/DeviceList/0/$ns3::PointToPointNetDevice/TxQueue/Enqueue ns3::PppHeader (Point-to-Point Protocol: IP (0x0021)) ns3::Ipv4Header (tos 0x0 DSCP Default ECN Not-ECT ttl 64 id 33 protocol 17 offset (bytes) 0 flags [none] length: 1052 10.15.101.1 > 10.15.104.4) ns3::UdpHeader (length: 1032 49153 > 9) Payload (size=1024)
+ 3.5 /NodeList/0/DeviceList/0/$ns3::PointToPointNetDevice/TxQueue/Enqueue ns3::PppHeader (Point-to-Point Protocol: IP (0x0021)) ns3::Ipv4Header (tos 0x0 DSCP Default ECN Not-ECT ttl 64 id 34 protocol 17 offset (bytes) 0 flags [none] length: 1052 10.15.101.1 > 10.15.104.4) ns3::UdpHeader (length: 1032 49153 > 9) Payload (size=1024)
+ 3.6 /NodeList/0/DeviceList/0/$ns3::PointToPointNetDevice/TxQueue/Enqueue ns3::PppHeader (Point-to-Point Protocol: IP (0x0021)) ns3::Ipv4Header (tos 0x0 DSCP Default ECN Not-ECT ttl 64 id 35 protocol 17 offset (bytes) 0 flags [none] length: 1052 10.15.101.1 > 10.15.104.4) ns3::UdpHeader (length: 1032 49153 > 9) Payload (size=1024)
+ 3.7 /NodeList/0/DeviceList/0/$ns3::PointToPointNetDevice/TxQueue/Enqueue ns3::PppHeader (Point-to-Point Protocol: IP (0x0021)) ns3::Ipv4Header (tos 0x0 DSCP Default ECN Not-ECT ttl 64 id 36 protocol 17 offset (bytes) 0 flags [none] length: 1052 10.15.101.1 > 10.15.104.4) ns3::UdpHeader (length: 1032 49153 > 9) Payload (size=1024)
+ 3.8 /NodeList/0/DeviceList/0/$ns3::PointToPointNetDevice/TxQueue/Enqueue ns3::PppHeader (Point-to-Point Protocol: IP (0x0021)) ns3::Ipv4Header (tos 0x0 DSCP Default ECN Not-ECT ttl 64 id 37 protocol 17 offset (bytes) 0 flags [none] length: 1052 10.15.101.1 > 10.15.104.4) ns3::UdpHeader (length: 1032 49153 > 9) Payload (size=1024)
+ 3.9 /NodeList/0/DeviceList/0/$ns3::PointToPointNetDevice/TxQueue/Enqueue ns3::PppHeader (Point-to-Point Protocol: IP (0x0021)) ns3::Ipv4Header (tos 0x0 DSCP Default ECN Not-ECT ttl 64 id 38 protocol 17 offset (bytes) 0 flags [none] length: 1052 10.15.101.1 > 10.15.104.4) ns3::UdpHeader (length: 1032 49153 > 9) Payload (size=1024)
+ 4 /NodeList/0/DeviceList/0/$ns3::PointToPointNetDevice/TxQueue/Enqueue ns3::PppHeader (Point-to-Point Protocol: IP (0x0021)) ns3::Ipv4Header (tos 0x0 DSCP Default ECN Not-ECT ttl 64 id 39 protocol 17 offset (bytes) 0 flags [none] length: 1052 10.15.101.1 > 10.15.104.4) ns3::UdpHeader (length: 1032 49153 > 9) Payload (size=1024)
+ 4.1 /NodeList/0/DeviceList/0/$ns3::PointToPointNetDevice/TxQueue/Enqueue ns3::PppHeader (Point-to-Point Protocol: IP (0x0021)) ns3::Ipv4Header (tos 0x0 DSCP Default ECN Not-ECT ttl 64 id 40 protocol 17 offset (bytes) 0 flags [none] length: 1052 10.15.101.1 > 10.15.104.4) ns3::UdpHeader (length: 1032 49153 > 9) Payload (size=1024)
+ 4.2 /NodeList/0/DeviceList/0/$ns3::PointToPointNetDevice/TxQueue/Enqueue ns3::PppHeader (Point-to-Point Protocol: IP (0x0021)) ns3::Ipv4Header (tos 0x0 DSCP Default ECN Not-ECT ttl 64 id 41 protocol 17 offset (bytes) 0 flags [none] length: 1052 10.15.101.1 > 10.15.104.4) ns3::UdpHeader (length: 1032 49153 > 9) Payload (size=1024)
+ 4.3 /NodeList/0/DeviceList/0/$ns3::PointToPointNetDevice/TxQueue/Enqueue ns3::PppHeader (Point-to-Point Protocol: IP (0x0021)) ns3::Ipv4Header (tos 0x0 DSCP Default ECN Not-ECT ttl 64 id 42 protocol 17 offset (bytes) 0 flags [none] length: 1052 10.15.101.1 > 10.15.104.4) ns3::UdpHeader (length: 1032 49153 > 9) Payload (size=1024)
+ 4.4 /NodeList/0/DeviceList/0/$ns3::PointToPointNetDevice/TxQueue/Enqueue ns3::PppHeader (Point-to-Point Protocol: IP (0x0021)) ns3::Ipv4Header (tos 0x0 DSCP Default ECN Not-ECT ttl 64 id 43 protocol 17 offset (bytes) 0 flags [none] length: 1052 10.15.101.1 > 10.15.104.4) ns3::UdpHeader (length: 1032 49153 > 9) Payload (size=1024)
+ 4.5 /NodeList/0/DeviceList/0/$ns3::PointToPointNetDevice/TxQueue/Enqueue ns3::PppHeader (Point-to-Point Protocol: IP (0x0021)) ns3::Ipv4Header (tos 0x0 DSCP Default ECN Not-ECT ttl 64 id 44 protocol 17 offset (bytes) 0 flags [none] length: 1052 10.15.101.1 > 10.15.104.4) ns3::UdpHeader (length: 1032 49153 > 9) Payload (size=1024)
+ 4.6 /NodeList/0/DeviceList/0/$ns3::PointToPointNetDevice/TxQueue/Enqueue ns3::PppHeader (Point-to-Point Protocol: IP (0x0021)) ns3::Ipv4Header (tos 0x0 DSCP Default ECN Not-ECT ttl 64 id 45 protocol 17 offset (bytes) 0 flags [none] length: 1052 10.15.101.1 > 10.15.104.4) ns3::UdpHeader (length: 1032 49153 > 9) Payload (size=1024)
+ 4.7 /NodeList/0/DeviceList/0/$ns3::PointToPointNetDevice/TxQueue/Enqueue ns3::PppHeader (Point-to-Point Protocol: IP (0x0021)) ns3::Ipv4Header (tos 0x0 DSCP Default ECN Not-ECT ttl 64 id 46 protocol 17 offset (bytes) 0 flags [none] length: 1052 10.15.101.1 > 10.15.104.4) ns3::UdpHeader (length: 1032 49153 > 9) Payload (size=1024)
+ 4.8 /NodeList/0/DeviceList/0/$ns3::PointToPointNetDevice/TxQueue/Enqueue ns3::PppHeader (Point-to-Point Protocol: IP (0x0021)) ns3::Ipv4Header (tos 0x0 DSCP Default ECN Not-ECT ttl 64 id 47 protocol 17 offset (bytes) 0 flags [none] length: 1052 10.15.101.1 > 10.15.104.4) ns3::UdpHeader (length: 1032 49153 > 9) Payload (size=1024)
+ 4.9 /NodeList/0/DeviceList/0/$ns3::PointToPointNetDevice/TxQueue/Enqueue ns3::PppHeader (Point-to-Point Protocol: IP (0x0021)) ns3::Ipv4Header (tos 0x0 DSCP Default ECN Not-ECT ttl 64 id 48 protocol 17 offset (bytes) 0 flags [none] length: 1052 10.15.101.1 > 10.15.104.4) ns3::UdpHeader (length: 1032 49153 > 9) Payload (size=1024)
+ 5 /NodeList/0/DeviceList/0/$ns3::PointToPointNetDevice/TxQueue/Enqueue ns3::PppHeader (Point-to-Point Protocol: IP (0x0021)) ns3::Ipv4Header (tos 0x0 DSCP Default ECN Not-ECT ttl 64 id 49 protocol 17 offset (bytes) 0 flags [none] length: 1052 10.15.101.1 > 10.15.104.4) ns3::UdpHeader (length: 1032 49153 > 9) Payload (size=1024)
+ 5.1 /NodeList/0/DeviceList/0/$ns3::PointToPointNetDevice/TxQueue/Enqueue ns3::PppHeader (Point-to-Point Protocol: IP (0x0021)) ns3::Ipv4Header (tos 0x0 DSCP Default ECN Not-ECT ttl 64 id 50 protocol 17 offset (bytes) 0 flags [none] length: 1052 10.15.101.1 > 10.15.104.4) ns3::UdpHeader (length: 1032 49153 > 9) Payload (size=1024)
+ 5.2 /NodeList/0/DeviceList/0/$ns3::PointToPointNetDevice/TxQueue/Enqueue ns3::PppHeader (Point-to-Point Protocol: IP (0x0021)) ns3::Ipv4Header (tos 0x0 DSCP Default ECN Not-ECT ttl 64 id 51 protocol 17 offset (bytes) 0 flags [none] length: 1052 10.15.101.1 > 10.15.104.4) ns3::UdpHeader (length: 1032 49153 > 9) Payload (size=1024)
+ 5.3 /NodeList/0/DeviceList/0/$ns3::PointToPointNetDevice/TxQueue/Enqueue ns3::PppHeader (Point-to-Point Protocol: IP (0x0021)) ns3::Ipv4Header (tos 0x0 DSCP Default ECN Not-ECT ttl 64 id 52 protocol 17 offset (bytes) 0 flags [none] length: 1052 10.15.101.1 > 10.15.104.4) ns3::UdpHeader (length: 1032 49153 > 9) Payload (size=1024)
+ 5.4 /NodeList/0/DeviceList/0/$ns3::PointToPointNetDevice/TxQueue/Enqueue ns3::PppHeader (Point-to-Point Protocol: IP (0x0021)) ns3::Ipv4Header (tos 0x0 DSCP Default ECN Not-ECT ttl 64 id 53 protocol 17 offset (bytes) 0 flags [none] length: 1052 10.15.101.1 > 10.15.104.4) ns3::UdpHeader (length: 1032 49153 > 9) Payload (size=1024)
+ 5.5 /NodeList/0/DeviceList/0/$ns3::PointToPointNetDevice/TxQueue/Enqueue ns3::PppHeader (Point-to-Point Protocol: IP (0x0021)) ns3::Ipv4Header (tos 0x0 DSCP Default ECN Not-ECT ttl 64 id 54 protocol 17 offset (bytes) 0 flags [none] length: 1052 10.15.101.1 > 10.15.104.4) ns3::UdpHeader (length: 1032 49153 > 9) Payload (size=1024)
+ 5.6 /NodeList/0/DeviceList/0/$ns3::PointToPointNetDevice/TxQueue/Enqueue ns3::PppHeader (Point-to-Point Protocol: IP (0x0021)) ns3::Ipv4Header (tos 0x0 DSCP Default ECN Not-ECT ttl 64 id 55 protocol 17 offset (bytes) 0 flags [none] length: 1052 10.15.101.1 > 10.15.104.4) ns3::UdpHeader (length: 1032 49153 > 9) Payload (size=1024)
+ 5.7 /NodeList/0/DeviceList/0/$ns3::PointToPointNetDevice/TxQueue/Enqueue ns3::PppHeader (Point-to-Point Protocol: IP (0x0021)) ns3::Ipv4Header (tos 0x0 DSCP Default ECN Not-ECT ttl 64 id 56 protocol 17 offset (bytes) 0 flags [none] length: 1052 10.15.101.1 > 10.15.104.4) ns3::UdpHeader (length: 1032 49153 > 9) Payload (size=1024)
+ 5.8 /NodeList/0/DeviceList/0/$ns3::PointToPointNetDevice/TxQueue/Enqueue ns3::PppHeader (Point-to-Point Protocol: IP (0x0021)) ns3::Ipv4Header (tos 0x0 DSCP Default ECN Not-ECT ttl 64 id 57 protocol 17 offset (bytes) 0 flags [none] length: 1052 10.15.101.1 > 10.15.104.4) ns3::UdpHeader (length: 1032 49153 > 9) Payload (size=1024)
+ 5.9 /NodeList/0/DeviceList/0/$ns3::PointToPointNetDevice/TxQueue/Enqueue ns3::PppHeader (Point-to-Point Protocol: IP (0x0021)) ns3::Ipv4Header (tos 0x0 DSCP Default ECN Not-ECT ttl 64 id 58 protocol 17 offset (bytes) 0 flags [none] length: 1052 10.15.101.1 > 10.15.104.4) ns3::UdpHeader (length: 1032 49153 > 9) Payload (size=1024)
+ 6 /NodeList/0/DeviceList/0/$ns3::PointToPointNetDevice/TxQueue/Enqueue ns3::PppHeader (Point-to-Point Protocol: IP (0x0021)) ns3::Ipv4Header (tos 0x0 DSCP Default ECN Not-ECT ttl 64 id 59 protocol 17 offset (bytes) 0 flags [none] length: 1052 10.15.101.1 > 10.15.104.4) ns3::UdpHeader (length: 1032 49153 > 9) Payload (size=1024)
+ 6.1 /NodeList/0/DeviceList/0/$ns3::PointToPointNetDevice/TxQueue/Enqueue ns3::PppHeader (Point-to-Point Protocol: IP (0x0021)) ns3::Ipv4Header (tos 0x0 DSCP Default ECN Not-ECT ttl 64 id 60 protocol 17 offset (bytes) 0 flags [none] length: 1052 10.15.101.1 > 10.15.104.4) ns3::UdpHeader (length: 1032 49153 > 9) Payload (size=1024)
+ 6.2 /NodeList/0/DeviceList/0/$ns3::PointToPointNetDevice/TxQueue/Enqueue ns3::PppHeader (Point-to-Point Protocol: IP (0x0021)) ns3::Ipv4Header (tos 0x0 DSCP Default ECN Not-ECT ttl 64 id 61 protocol 17 offset (bytes) 0 flags [none] length: 1052 10.15.101.1 > 10.15.104.4) ns3::UdpHeader (length: 1032 49153 > 9) Payload (size=1024)
+ 6.3 /NodeList/0/DeviceList/0/$ns3::PointToPointNetDevice/TxQueue/Enqueue ns3::PppHeader (Point-to-Point Protocol: IP (0x0021)) ns3::Ipv4Header (tos 0x0 DSCP Default ECN Not-ECT ttl 64 id 62 protocol 17 offset (bytes) 0 flags [none] length: 1052 10.15.101.1 > 10.15.104.4) ns3::UdpHeader (length: 1032 49153 > 9) Payload (size=1024)
+ 6.4 /NodeList/0/DeviceList/0/$ns3::PointToPointNetDevice/TxQueue/Enqueue ns3::PppHeader (Point-to-Point Protocol: IP (0x0021)) ns3::Ipv4Header (tos 0x0 DSCP Default ECN Not-ECT ttl 64 id 63 protocol 17 offset (bytes) 0 flags [none] length: 1052 10.15.101.1 > 10.15.104.4) ns3::UdpHeader (length: 1032 49153 > 9) Payload (size=1024)
+ 6.5 /NodeList/0/DeviceList/0/$ns3::PointToPointNetDevice/TxQueue/Enqueue ns3::PppHeader (Point-to-Point Protocol: IP (0x0021)) ns3::Ipv4Header (tos 0x0 DSCP Default ECN Not-ECT ttl 64 id 64 protocol 17 offset (bytes) 0 flags [none] length: 1052 10.15.101.1 > 10.15.104.4) ns3::UdpHeader (length: 1032 49153 > 9) Payload (size=1024)
+ 6.6 /NodeList/0/DeviceList/0/$ns3::PointToPointNetDevice/TxQueue/Enqueue ns3::PppHeader (Point-to-Point Protocol: IP (0x0021)) ns3::Ipv4Header (tos 0x0 DSCP Default ECN Not-ECT ttl 64 id 65 protocol 17 offset (bytes) 0 flags [none] length: 1052 10.15.101.1 > 10.15.104.4) ns3::UdpHeader (length: 1032 49153 > 9) Payload (size=1024)
+ 6.7 /NodeList/0/DeviceList/0/$ns3::PointToPointNetDevice/TxQueue/Enqueue ns3::PppHeader (Point-to-Point Protocol: IP (0x0021)) ns3::Ipv4Header (tos 0x0 DSCP Default ECN Not-ECT ttl 64 id 66 protocol 17 offset (bytes) 0 flags [none] length: 1052 10.15.101.1 > 10.15.104.4) ns3::UdpHeader (length: 1032 49153 > 9) Payload (size=1024)
+ 6.8 /NodeList/0/DeviceList/0/$ns3::PointToPointNetDevice/TxQueue/Enqueue ns3::PppHeader (Point-to-Point Protocol: IP (0x0021)) ns3::Ipv4Header (tos 0x0 DSCP Default ECN Not-ECT ttl 64 id 67 protocol 17 offset (bytes) 0 flags [none] length: 1052 10.15.101.1 > 10.15.104.4) ns3::UdpHeader (length: 1032 49153 > 9) Payload (size=1024)
+ 6.9 /NodeList/0/DeviceList/0/$ns3::PointToPointNetDevice/TxQueue/Enqueue ns3::PppHeader (Point-to-Point Protocol: IP (0x0021)) ns3::Ipv4Header (tos 0x0 DSCP Default ECN Not-ECT ttl 64 id 68 protocol 17 offset (bytes) 0 flags [none] length: 1052 10.15.101.1 > 10.15.104.4) ns3::UdpHeader (length: 1032 49153 > 9) Payload (size=1024)
+ 7 /NodeList/0/DeviceList/0/$ns3::PointToPointNetDevice/TxQueue/Enqueue ns3::PppHeader (Point-to-Point Protocol: IP (0x0021)) ns3::Ipv4Header (tos 0x0 DSCP Default ECN Not-ECT ttl 64 id 69 protocol 17 offset (bytes) 0 flags [none] length: 1052 10.15.101.1 > 10.15.104.4) ns3::UdpHeader (length: 1032 49153 > 9) Payload (size=1024)
+ 7.1 /NodeList/0/DeviceList/0/$ns3::PointToPointNetDevice/TxQueue/Enqueue ns3::PppHeader (Point-to-Point Protocol: IP (0x0021)) ns3::Ipv4Header (tos 0x0 DSCP Default ECN Not-ECT ttl 64 id 70 protocol 17 offset (bytes) 0 flags [none] length: 1052 10.15.101.1 > 10.15.104.4) ns3::UdpHeader (length: 1032 49153 > 9) Payload (size=1024)
+ 7.2 /NodeList/0/DeviceList/0/$ns3::PointToPointNetDevice/TxQueue/Enqueue ns3::PppHeader (Point-to-Point Protocol: IP (0x0021)) ns3::Ipv4Header (tos 0x0 DSCP Default ECN Not-ECT ttl 64 id 71 protocol 17 offset (bytes) 0 flags [none] length: 1052 10.15.101.1 > 10.15.104.4) ns3::UdpHeader (length: 1032 49153 > 9) Payload (size=1024)
+ 7.3 /NodeList/0/DeviceList/0/$ns3::PointToPointNetDevice/TxQueue/Enqueue ns3::PppHeader (Point-to-Point Protocol: IP (0x0021)) ns3::Ipv4Header (tos 0x0 DSCP Default ECN Not-ECT ttl 64 id 72 protocol 17 offset (bytes) 0 flags [none] length: 1052 10.15.101.1 > 10.15.104.4) ns3::UdpHeader (length: 1032 49153 > 9) Payload (size=1024)
+ 7.4 /NodeList/0/DeviceList/0/$ns3::PointToPointNetDevice/TxQueue/Enqueue ns3::PppHeader (Point-to-Point Protocol: IP (0x0021)) ns3::Ipv4Header (tos 0x0 DSCP Default ECN Not-ECT ttl 64 id 73 protocol 17 offset (bytes) 0 flags [none] length: 1052 10.15.101.1 > 10.15.104.4) ns3::UdpHeader (length: 1032 49153 > 9) Payload (size=1024)
+ 7.5 /NodeList/0/DeviceList/0/$ns3::PointToPointNetDevice/TxQueue/Enqueue ns3::PppHeader (Point-to-Point Protocol: IP (0x0021)) ns3::Ipv4Header (tos 0x0 DSCP Default ECN Not-ECT ttl 64 id 74 protocol 17 offset (bytes) 0 flags [none] length: 1052 10.15.101.1 > 10.15.104.4) ns3::UdpHeader (length: 1032 49153 > 9) Payload (size=1024)
+ 7.6 /NodeList/0/DeviceList/0/$ns3::PointToPointNetDevice/TxQueue/Enqueue ns3::PppHeader (Point-to-Point Protocol: IP (0x0021)) ns3::Ipv4Header (tos 0x0 DSCP Default ECN Not-ECT ttl 64 id 75 protocol 17 offset (bytes) 0 flags [none] length: 1052 10.15.101.1 > 10.15.104.4) ns3::UdpHeader (length: 1032 49153 > 9) Payload (size=1024)
+ 7.7 /NodeList/0/DeviceList/0/$ns3::PointToPointNetDevice/TxQueue/Enqueue ns3::PppHeader (Point-to-Point Protocol: IP (0x0021)) ns3::Ipv4Header (tos 0x0 DSCP Default ECN Not-ECT ttl 64 id 76 protocol 17 offset (bytes) 0 flags [none] length: 1052 10.15.101.1 > 10.15.104.4) ns3::UdpHeader (length: 1032 49153 > 9) Payload (size=1024)
+ 7.8 /NodeList/0/DeviceList/0/$ns3::PointToPointNetDevice/TxQueue/Enqueue ns3::PppHeader (Point-to-Point Protocol: IP (0x0021)) ns3::Ipv4Header (tos 0x0 DSCP Default ECN Not-ECT ttl 64 id 77 protocol 17 offset (bytes) 0 flags [none] length: 1052 10.15.101.1 > 10.15.104.4) ns3::UdpHeader (length: 1032 49153 > 9) Payload (size=1024)
+ 7.9 /NodeList/0/DeviceList/0/$ns3::PointToPointNetDevice/TxQueue/Enqueue ns3::PppHeader (Point-to-Point Protocol: IP (0x0021)) ns3::Ipv4Header (tos 0x0 DSCP Default ECN Not-ECT ttl 64 id 78 protocol 17 offset (bytes) 0 flags [none] length: 1052 10.15.101.1 > 10.15.104.4) ns3::UdpHeader (length: 1032 49153 > 9) Payload (size=1024)
+ 8 /NodeList/0/DeviceList/0/$ns3::PointToPointNetDevice/TxQueue/Enqueue ns3::PppHeader (Point-to-Point Protocol: IP (0x0021)) ns3::Ipv4Header (tos 0x0 DSCP Default ECN Not-ECT ttl 64 id 79 protocol 17 offset (bytes) 0 flags [none] length: 1052 10.15.101.1 > 10.15.104.4) ns3::UdpHeader (length: 1032 49153 > 9) Payload (size=1024)
+ 8.1 /NodeList/0/DeviceList/0/$ns3::PointToPointNetDevice/TxQueue/Enqueue ns3::PppHeader (Point-to-Point Protocol: IP (0x0021)) ns3::Ipv4Header (tos 0x0 DSCP Default ECN Not-ECT ttl 64 id 80 protocol 17 offset (bytes) 0 flags [none] length: 1052 10.15.101.1 > 10.15.104.4) ns3::UdpHeader (length: 1032 49153 > 9) Payload (size=1024)
+ 8.2 /NodeList/0/DeviceList/0/$ns3::PointToPointNetDevice/TxQueue/Enqueue ns3::PppHeader (Point-to-Point Protocol: IP (0x0021)) ns3::Ipv4Header (tos 0x0 DSCP Default ECN Not-ECT ttl 64 id 81 protocol 17 offset (bytes) 0 flags [none] length: 1052 10.15.101.1 > 10.15.104.4) ns3::UdpHeader (length: 1032 49153 > 9) Payload (size=1024)
+ 8.3 /NodeList/0/DeviceList/0/$ns3::PointToPointNetDevice/TxQueue/Enqueue ns3::PppHeader (Point-to-Point Protocol: IP (0x0021)) ns3::Ipv4Header (tos 0x0 DSCP Default ECN Not-ECT ttl 64 id 82 protocol 17 offset (bytes) 0 flags [none] length: 1052 10.15.101.1 > 10.15.104.4) ns3::UdpHeader (length: 1032 49153 > 9) Payload (size=1024)
+ 8.4 /NodeList/0/DeviceList/0/$ns3::PointToPointNetDevice/TxQueue/Enqueue ns3::PppHeader (Point-to-Point Protocol: IP (0x0021)) ns3::Ipv4Header (tos 0x0 DSCP Default ECN Not-ECT ttl 64 id 83 protocol 17 offset (bytes) 0 flags [none] length: 1052 10.15.101.1 > 10.15.104.4) ns3::UdpHeader (length: 1032 49153 > 9) Payload (size=1024)
+ 8.5 /NodeList/0/DeviceList/0/$ns3::PointToPointNetDevice/TxQueue/Enqueue ns3::PppHeader (Point-to-Point Protocol: IP (0x0021)) ns3::Ipv4Header (tos 0x0 DSCP Default ECN Not-ECT ttl 64 id 84 protocol 17 offset (bytes) 0 flags [none] length: 1052 10.15.101.1 > 10.15.104.4) ns3::UdpHeader (length: 1032 49153 > 9) Payload (size=1024)
- 8.532 /NodeList/0/DeviceList/0/$ns3::PointToPointNetDevice/TxQueue/Dequeue ns3::PppHeader (Point-to-Point Protocol: IP (0x0021)) ns3::Ipv4Header (tos 0x0 DSCP Default ECN Not-ECT ttl 64 id 1 protocol 17 offset (bytes) 0 flags [none] length: 1052 10.15.101.1 > 10.15.104.4) ns3::UdpHeader (length: 1032 49153 > 9) Payload (size=1024)
r 8.533 /NodeList/1/DeviceList/0/$ns3::PointToPointNetDevice/MacRx ns3::PppHeader (Point-to-Point Protocol: IP (0x0021)) ns3::Ipv4Header (tos 0x0 DSCP Default ECN Not-ECT ttl 64 id 0 protocol 17 offset (bytes) 0 flags [none] length: 1052 10.15.101.1 > 10.15.104.4) ns3::UdpHeader (length: 1032 49153 > 9) Payload (size=1024)
+ 8.5349 /NodeList/2/DeviceList/0/$ns3::PointToPointNetDevice/TxQueue/Enqueue ns3::PppHeader (Point-to-Point Protocol: IP (0x0021)) ns3::Ipv4Header (tos 0x0 DSCP Default ECN Not-ECT ttl 62 id 0 protocol 17 offset (bytes) 0 flags [none] length: 1052 10.15.101.1 > 10.15.104.4) ns3::UdpHeader (length: 1032 49153 > 9) Payload (size=1024)